ITEM: TIMESTEP
1000
ITEM: NUMBER OF ATOMS
512
ITEM: BOX BOUNDS pp pp pp
0 24.9
0 24.835
0 24.835
ITEM: ATOMS id type x y z 
328 1 0.540522 8.34737 17.108 
294 1 21.1912 13.8493 15.98 
349 1 22.6881 17.5013 0.398006 
406 1 3.03184 14.657 3.13684 
458 1 16.5838 12.9104 14.245 
81 1 0.299097 1.29444 10.9523 
484 1 10.8233 5.81093 10.7632 
270 1 20.0539 0.306642 23.4714 
23 1 6.52304 23.034 10.3562 
434 1 20.2183 2.5107 20.4919 
106 1 2.3622 17.6642 10.1848 
286 1 15.9823 23.7826 2.62873 
478 1 8.10556 6.43471 6.6141 
107 1 18.7669 23.094 5.69537 
151 1 22.7118 1.35298 16.1005 
356 1 10.8948 18.6501 17.5284 
135 1 13.9771 24.0054 17.9625 
105 1 24.1977 14.71 21.5893 
109 1 24.353 11.1473 11.2505 
268 1 7.22762 8.7118 6.98842 
486 1 15.3861 18.2868 1.27383 
308 1 3.74343 18.6334 2.34994 
394 1 12.4069 1.78331 4.08668 
462 1 16.6201 1.73645 0.323507 
30 1 15.8972 5.11805 19.932 
489 1 11.714 12.1134 8.69977 
424 1 9.58584 17.9468 17.3206 
34 1 1.48904 15.8342 4.35848 
199 1 6.66475 0.827321 9.89662 
322 1 12.3478 20.2069 0.748231 
104 1 15.5971 6.79707 7.31683 
173 1 11.7386 1.67013 10.5951 
100 1 22.7687 7.63353 3.698 
488 1 0.648144 16.9911 17.7048 
250 1 15.9354 15.9767 13.1475 
391 1 3.6644 11.3754 19.6422 
67 1 2.40642 15.9136 16.1038 
305 1 6.57639 0.539907 16.3605 
91 1 20.9591 1.83338 22.9795 
255 1 9.86756 0.896963 11.1579 
146 1 22.4474 20.1024 17.3728 
20 1 12.6802 0.346163 10.8157 
473 1 8.34628 15.8401 4.62077 
491 1 14.3571 1.89314 15.0634 
93 1 12.6389 19.4285 18.4212 
302 1 13.3152 9.90108 18.0717 
234 1 14.2359 3.73686 8.42385 
482 1 13.0757 2.45319 7.91954 
68 1 9.64742 4.82496 10.6835 
242 1 13.5386 8.89905 9.50912 
344 1 9.91425 3.42262 23.8243 
170 1 8.19853 20.9128 19.8054 
141 1 13.0038 23.3679 18.7521 
62 1 8.02753 4.72954 21.6498 
329 1 20.9591 1.50145 20.8752 
375 1 12.5488 18.6539 16.1859 
440 1 14.2332 12.5992 20.6082 
108 1 7.52902 4.68714 7.12042 
116 1 18.0169 5.84835 16.4513 
2 1 13.4108 1.42514 7.1396 
132 1 22.6481 22.0038 21.7079 
166 1 21.4367 2.38625 20.4342 
276 1 13.3904 2.01618 16.1095 
143 1 20.5789 11.8982 21.188 
215 1 10.8916 22.8179 19.7666 
40 1 16.6373 1.2745 21.7068 
272 1 22.4175 24.5942 20.6895 
467 1 11.6588 13.6475 8.00116 
494 1 10.6813 11.8395 18.7846 
502 1 23.5411 4.14891 7.20843 
266 1 21.3156 -0.312488 22.9467 
190 1 21.0539 4.04667 21.1795 
341 1 9.21767 23.3601 9.43276 
86 1 11.4254 1.30098 6.31963 
451 1 0.322022 18.879 7.27467 
277 1 15.2739 23.7727 4.06786 
172 1 24.4226 15.3984 16.3066 
320 1 14.4037 15.9964 13.6564 
253 1 11.2756 5.22142 19.2773 
64 1 3.78516 9.45119 10.693 
261 1 7.98325 7.16397 2.59078 
223 1 14.2389 23.2157 3.41523 
403 1 16.2371 19.2274 11.7586 
275 1 24.7701 10.5948 8.38341 
3 1 6.79776 19.4818 23.8621 
61 1 7.58581 10.2002 1.02075 
59 1 1.96143 7.77168 21.2424 
469 1 21.8447 15.9766 11.4311 
503 1 9.14931 18.2844 19.8371 
241 1 14.9561 18.9636 2.23371 
207 1 13.9897 10.6396 19.1292 
230 1 15.2684 24.5093 2.93845 
480 1 3.25457 11.7183 22.224 
397 1 7.96396 11.791 16.8139 
373 1 8.09023 12.2192 1.25036 
283 1 14.1679 1.14715 0.0139275 
248 1 22.6395 23.936 10.3288 
179 1 2.25451 16.2331 3.71861 
348 1 2.87278 12.5399 18.9907 
225 1 7.76245 20.0239 24.3481 
171 1 19.5033 1.31714 14.5497 
186 1 10.7664 14.1781 5.89225 
460 1 15.8392 18.0127 17.4847 
296 1 8.38314 13.2797 1.15328 
476 1 22.1895 24.4944 17.6824 
428 1 15.3941 8.90226 15.1758 
220 1 3.41606 13.9886 4.8012 
474 1 19.0541 19.263 16.278 
340 1 14.6446 6.63167 8.63856 
389 1 2.70721 11.9357 21.1719 
127 1 13.6888 15.0084 22.5808 
507 1 15.3868 22.5021 4.00348 
94 1 21.9815 10.9605 22.0373 
461 1 4.0596 1.57567 21.1372 
8 1 15.8606 16.9682 12.5571 
183 1 13.3108 0.444475 6.08252 
510 1 3.78612 18.4281 23.7823 
338 1 18.942 21.9268 21.2325 
505 1 25.0187 14.2296 18.9573 
509 1 8.06898 13.2504 4.73445 
257 1 16.4007 1.35806 9.37824 
448 1 14.7484 16.7033 18.5388 
48 1 2.00082 23.7903 6.98589 
304 1 23.5106 3.63145 8.16012 
134 1 11.3959 15.2865 1.99188 
224 1 16.6213 18.8682 17.4663 
387 1 8.3599 1.19456 1.86286 
167 1 0.900302 9.81553 3.89498 
438 1 22.2961 0.830261 20.6602 
447 1 9.76228 0.661905 10.0043 
103 1 8.72027 1.00364 3.57597 
374 1 12.7221 20.8273 9.93078 
71 1 23.7545 13.9268 20.3458 
18 1 9.08008 7.76518 22.8584 
444 1 24.9755 9.44573 19.7437 
202 1 13.587 18.7803 16.6761 
456 1 20.1379 6.27859 17.0078 
361 1 2.01079 16.3936 10.049 
169 1 6.69972 13.8984 17.925 
292 1 10.1542 21.3541 19.5682 
205 1 14.7402 10.8563 14.7594 
285 1 7.78131 21.6448 9.47583 
312 1 10.6632 7.6522 7.59381 
472 1 5.5097 4.61854 21.2061 
160 1 10.6873 1.7306 11.1385 
153 1 10.9267 3.55821 19.9462 
479 1 13.3351 23.723 2.83235 
246 1 3.58951 10.1973 19.7998 
511 1 15.9431 22.6734 24.1087 
279 1 21.1849 19.5588 11.4103 
165 1 -0.236699 24.4195 13.9707 
115 1 12.3015 21.8176 11.0599 
130 1 9.7856 1.89283 11.6262 
206 1 5.36059 14.0741 9.55821 
88 1 11.5124 0.18556 9.32424 
477 1 2.60065 21.8146 10.7102 
117 1 8.44944 20.9999 18.0136 
161 1 16.2285 23.5199 14.1107 
69 1 9.93772 6.64308 5.97917 
454 1 10.802 1.19991 5.22832 
427 1 14.9648 8.94946 2.90325 
497 1 13.6279 13.9388 20.9258 
95 1 13.3761 21.7998 10.3156 
110 1 11.6021 0.557795 5.5708 
177 1 14.536 21.6136 12.5587 
354 1 10.3508 2.27888 4.44524 
44 1 12.2124 1.51649 7.17204 
9 1 15.5463 11.6599 17.4017 
57 1 13.2917 1.17651 4.87097 
222 1 7.80271 7.09261 20.3992 
233 1 15.4707 20.3974 2.68176 
372 1 18.6931 1.77237 7.62379 
345 1 2.34546 16.1173 5.13375 
430 1 18.91 0.761257 15.3097 
342 1 1.80385 15.0322 5.23138 
404 1 14.866 19.83 15.5153 
52 1 17.0388 11.7301 14.476 
504 1 21.786 15.6502 1.33246 
390 1 1.65675 22.7083 14.2515 
154 1 14.076 17.8671 1.8031 
35 1 22.6248 17.0003 21.301 
388 1 23.0266 16.1077 23.2667 
280 1 21.962 13.9487 17.0427 
89 1 7.18554 15.5472 21.4278 
247 1 4.31008 6.27283 20.3765 
471 1 14.6085 13.4612 2.58499 
137 1 12.7978 1.35177 9.73969 
119 1 0.326309 14.6596 16.5535 
297 1 15.4174 7.17276 1.98844 
219 1 0.232441 23.2916 0.485527 
282 1 18.2831 4.10157 16.5992 
452 1 0.972571 18.7043 8.44854 
92 1 13.9122 15.28 18.6197 
251 1 15.2602 2.36713 19.6166 
7 1 13.9018 8.13771 5.15337 
123 1 7.54177 8.77313 9.44466 
211 1 13.5754 12.5756 -0.0178412 
70 1 6.36142 19.0474 13.2012 
459 1 9.93041 24.5848 11.758 
368 1 7.85835 2.22296 10.4354 
350 1 23.6745 14.9997 17.8316 
226 1 11.3289 12.5607 6.54154 
380 1 15.2636 17.7795 2.13035 
72 1 9.15359 19.3626 24.1676 
229 1 9.53557 0.902873 7.15794 
326 1 24.1072 17.2423 16.6911 
158 1 23.6861 17.7398 5.35332 
218 1 12.1645 19.8301 24.1656 
80 1 7.03897 2.90683 6.59058 
457 1 22.098 12.4583 1.39852 
332 1 0.518985 3.89712 10.4538 
112 1 21.6005 19.9141 3.92442 
310 1 9.09344 5.34516 13.3284 
318 1 17.3386 9.97728 21.1908 
335 1 7.75617 25.3286 1.44341 
331 1 12.5021 13.9172 7.17555 
399 1 20.5626 7.97001 7.21088 
178 1 1.64616 6.08277 21.6316 
168 1 17.2305 23.1466 14.8358 
56 1 12.0977 19.6424 14.9543 
421 1 19.6128 14.6546 11.8078 
429 1 1.55098 15.3679 15.8797 
149 1 21.1407 20.7229 2.80345 
32 1 22.9461 12.3668 0.654954 
379 1 9.03339 1.02269 12.0982 
315 1 9.74766 16.5439 20.3673 
273 1 15.9739 11.5252 12.933 
36 1 10.27 14.8487 15.882 
114 1 15.6622 14.4826 3.86601 
269 1 3.74439 2.92112 18.8371 
309 1 23.1315 12.5154 1.67751 
453 1 10.9402 11.9548 5.69845 
420 1 4.77425 18.2884 23.9949 
417 1 2.38306 11.648 1.94746 
508 1 14.2907 14.3543 21.907 
258 1 3.4436 13.0376 5.47043 
455 1 12.0883 1.43928 5.16695 
437 1 20.7573 2.62969 23.7514 
139 1 7.99262 23.4928 13.3974 
76 1 9.76098 0.854376 5.05865 
60 1 5.01583 5.2621 3.5006 
42 1 13.2586 12.7865 23.1204 
290 1 14.5085 12.3479 2.94329 
289 1 10.7236 3.49716 16.5957 
254 1 11.7944 5.26973 15.278 
232 1 22.0987 18.1697 22.9184 
284 1 9.14219 22.4823 8.524 
144 1 14.3098 5.27029 18.1304 
470 1 23.1421 11.7819 2.54612 
155 1 11.1885 1.72402 7.41389 
324 1 2.20095 4.65631 11.2804 
148 1 8.61813 22.2557 10.7079 
249 1 3.12112 2.42595 18.1717 
156 1 7.38055 20.345 3.3177 
197 1 8.15762 4.1026 22.8022 
181 1 4.90065 24.0798 2.28273 
432 1 0.972802 15.0059 3.62978 
131 1 10.1696 0.946413 3.80545 
398 1 11.9548 4.24608 16.0031 
339 1 3.40388 19.4347 14.65 
133 1 18.4415 13.6134 3.32387 
74 1 2.1227 22.7821 22.0575 
182 1 22.5886 14.7069 11.567 
313 1 6.82654 22.9192 15.381 
411 1 6.22791 20.3142 14.7985 
442 1 11.8918 8.05389 1.3349 
193 1 12.1179 17.939 18.7203 
12 1 22.5062 18.5371 17.5133 
402 1 4.65467 18.1836 2.53999 
212 1 23.5636 11.1684 16.3796 
353 1 21.6826 22.2817 21.825 
128 1 1.80093 0.859979 3.75601 
54 1 23.6992 14.8495 12.944 
184 1 8.70297 5.96417 17.4107 
259 1 21.1249 0.420972 8.02278 
142 1 4.44868 11.9835 4.93423 
365 1 15.242 0.867293 19.0008 
102 1 10.8077 0.0262109 4.8267 
267 1 10.5149 24.059 8.7136 
412 1 19.3322 23.0235 18.6474 
16 1 10.8306 3.35198 18.7584 
239 1 23.8916 18.0142 14.0695 
82 1 13.0726 20.009 15.8178 
118 1 14.4823 7.69094 6.33933 
492 1 3.48472 2.29279 12.6231 
185 1 9.08901 18.912 2.36118 
55 1 14.9867 15.4849 4.42888 
39 1 15.2889 11.8977 3.98233 
45 1 15.8706 12.1054 24.5192 
449 1 11.6709 14.8086 10.243 
377 1 20.6328 0.355076 8.98863 
21 1 11.0097 2.77916 6.59403 
414 1 4.67105 7.22925 19.2355 
386 1 7.48263 4.46956 0.174958 
364 1 15.2701 7.14393 19.2687 
4 1 13.5742 23.9595 8.92349 
150 1 21.376 6.74669 0.463347 
463 1 14.8533 6.31869 0.51939 
136 1 21.3992 12.9407 15.5128 
189 1 5.67758 18.6592 3.25861 
287 1 12.748 13.9103 19.7812 
407 1 6.36961 18.9981 12.072 
152 1 24.6684 19.4229 13.7047 
37 1 23.1264 16.1709 17.8559 
327 1 11.8938 22.9073 10.3901 
78 1 15.2819 16.3657 9.5899 
466 1 8.81958 18.4779 11.9452 
31 1 7.27798 23.3025 16.3247 
425 1 11.1519 10.7775 19.0162 
422 1 9.29593 21.3677 20.2799 
392 1 22.2989 2.31582 23.3531 
445 1 11.1399 17.4365 18.7169 
46 1 2.11397 11.4526 18.7186 
29 1 2.70524 18.2699 17.7891 
65 1 23.8994 15.3947 20.4776 
99 1 9.9177 12.6375 12.3268 
500 1 1.4688 22.5234 18.8074 
352 1 12.0817 15.6331 3.8833 
33 1 1.00181 15.2208 17.5798 
383 1 9.17323 8.05199 20.2122 
26 1 20.3083 0.936538 9.87089 
6 1 15.2136 18.6338 3.20311 
237 1 13.7123 6.30974 18.2555 
278 1 16.509 17.4482 13.4175 
216 1 24.137 19.8325 2.79661 
419 1 9.09883 19.4124 1.3936 
291 1 3.68675 3.17572 0.976305 
195 1 11.9043 0.57109 14.3782 
436 1 7.81403 11.0991 24.5891 
260 1 15.5458 22.9428 17.2424 
343 1 9.06891 0.147905 11.4313 
157 1 23.2644 10.7137 12.2877 
274 1 9.72025 11.6589 5.1847 
405 1 4.72654 17.6981 12.6826 
346 1 21.3093 2.92007 22.715 
145 1 12.9634 11.6845 0.931819 
281 1 12.3073 15.6168 22.7762 
180 1 13.8807 10.1788 0.653755 
85 1 12.8504 5.84901 21.616 
371 1 23.1448 2.04385 17.0842 
194 1 5.73062 19.2308 22.6306 
10 1 6.13931 13.2992 21.6876 
122 1 15.043 6.07315 19.2919 
263 1 7.90259 23.4429 6.10845 
24 1 13.8334 11.4129 2.99073 
369 1 7.3899 22.37 17.265 
147 1 13.837 13.399 21.7625 
41 1 1.6246 3.32437 10.6589 
300 1 4.03848 13.5852 0.738678 
79 1 13.1676 0.499363 8.94883 
198 1 20.62 1.3869 8.63153 
125 1 8.14671 13.4298 5.87369 
321 1 2.59924 13.8221 3.89294 
314 1 20.2166 5.49848 13.0834 
512 1 14.1096 11.9961 1.00907 
303 1 5.30384 5.99451 23.6963 
162 1 14.0543 24.7262 8.25668 
73 1 12.4664 12.8345 1.28078 
27 1 8.121 11.166 0.976575 
475 1 16.4584 16.2442 11.7653 
370 1 12.6482 16.3696 20.4447 
187 1 1.95495 12.4985 19.6732 
490 1 2.731 17.9571 11.2346 
307 1 4.37078 18.0315 15.4078 
306 1 15.0348 18.4098 16.9659 
351 1 8.83431 11.3629 5.68153 
413 1 11.5484 16.8536 1.00474 
111 1 20.3879 13.4997 11.7079 
13 1 10.484 1.1686 12.199 
244 1 1.38387 16.3795 15.9026 
227 1 22.0859 0.519579 4.90758 
363 1 20.4009 1.77454 22.1112 
101 1 8.4843 19.4404 4.84927 
47 1 12.2679 14.9056 3.03057 
408 1 20.7514 3.13993 2.81302 
51 1 20.3884 14.3768 22.0591 
433 1 3.47503 12.0688 12.6557 
295 1 21.8615 22.6205 1.40763 
19 1 20.0664 12.8294 22.4825 
499 1 6.20163 23.0369 20.2006 
163 1 20.1007 14.1322 14.713 
96 1 1.26111 19.6847 20.7683 
366 1 16.3973 3.77899 19.2375 
384 1 7.23471 11.2247 18.8104 
393 1 4.87122 1.86047 18.6619 
316 1 20.3712 21.5235 21.0186 
196 1 14.9274 15.7501 3.10568 
431 1 10.1367 18.4596 18.2563 
22 1 7.40092 21.0722 6.90074 
423 1 14.4588 0.499798 3.71778 
468 1 8.72201 12.3526 2.1713 
236 1 6.96739 21.9933 16.1136 
5 1 16.035 18.416 13.5811 
498 1 4.98503 19.1869 23.5711 
355 1 4.79186 13.2911 19.8302 
188 1 6.42625 16.1932 5.53654 
362 1 17.2708 17.4031 9.98841 
395 1 6.0769 15.4968 4.68665 
410 1 14.2701 23.4209 21.7808 
200 1 21.4712 6.71083 12.0686 
376 1 22.6852 4.51413 20.6845 
240 1 8.10986 24.279 12.3174 
121 1 10.3775 7.94459 23.7169 
485 1 23.9444 6.78863 13.7622 
97 1 17.9533 10.9387 20.7899 
213 1 3.75653 15.3083 14.5187 
426 1 7.38171 21.6697 18.3055 
334 1 0.979073 23.5291 6.66848 
293 1 24.2044 20.499 17.6213 
217 1 6.92488 1.09628 1.34256 
416 1 13.9171 21.8689 4.81268 
164 1 20.3971 17.2123 2.06436 
77 1 19.0806 10.0006 20.9652 
378 1 4.54299 9.71073 11.9998 
493 1 11.9423 14.1665 12.4992 
319 1 1.67805 1.90946 3.50705 
382 1 20.2583 17.6248 6.05665 
209 1 2.17058 15.6939 -0.0104568 
418 1 0.340993 15.5334 15.7717 
360 1 10.6037 6.8474 12.2317 
138 1 6.45532 20.1302 1.38874 
113 1 5.95203 19.6696 17.7825 
192 1 14.1567 12.5229 1.94786 
271 1 24.5395 14.59 19.8922 
400 1 11.7677 0.710038 11.6349 
191 1 24.7449 12.9278 19.948 
203 1 14.8773 5.65232 9.07228 
441 1 -0.243042 0.0432462 1.49058 
126 1 12.6641 14.8055 20.5057 
358 1 6.85281 14.8335 2.20936 
208 1 19.4451 21.0012 21.119 
506 1 9.65008 9.57969 18.5116 
221 1 9.93107 19.6849 18.8484 
299 1 19.3701 13.7801 9.08278 
464 1 2.74121 9.84352 10.9756 
357 1 10.7868 2.32248 21.8828 
298 1 15.5738 17.2968 18.557 
252 1 20.223 2.76738 22.708 
214 1 13.3912 22.095 3.33071 
483 1 22.479 0.645467 17.8698 
495 1 9.55609 1.69071 4.40019 
84 1 13.3962 10.7796 1.71352 
367 1 2.546 10.8175 17.6537 
1 1 19.247 3.55515 22.4328 
98 1 15.2717 1.1076 17.9535 
465 1 0.688955 13.5746 19.4616 
396 1 4.11827 2.03341 17.8262 
140 1 11.0524 15.507 3.03548 
228 1 4.28547 10.0388 13.5204 
337 1 9.72834 19.3056 19.8781 
75 1 13.0252 11.6991 9.59695 
325 1 1.21047 23.0321 9.70139 
262 1 4.36491 18.9631 4.83228 
443 1 19.9217 19.6654 18.3481 
66 1 24.9294 6.41804 7.29531 
450 1 11.6709 20.4595 8.79797 
381 1 4.60441 11.0607 21.8669 
415 1 5.94711 20.1949 12.7231 
50 1 12.9517 18.0436 17.5088 
83 1 8.00803 19.3458 1.53477 
28 1 14.8658 15.3352 6.05017 
446 1 17.5865 11.9329 20.4602 
38 1 8.96899 0.583058 2.58977 
15 1 10.0593 19.0253 20.8617 
487 1 7.11724 4.45038 22.3368 
238 1 3.03719 7.9892 23.0726 
435 1 12.4244 10.0692 23.2255 
159 1 16.2879 5.92919 23.6965 
256 1 3.16627 19.0401 16.3152 
409 1 5.71159 16.4055 6.2605 
175 1 20.7227 8.08469 4.86182 
439 1 10.3124 16.4559 5.28093 
235 1 20.8169 0.772294 22.8931 
385 1 20.8289 24.2372 20.9577 
90 1 1.28359 24.0193 5.76228 
11 1 24.4491 6.27102 9.54185 
63 1 17.3116 16.0269 14.1647 
243 1 21.8843 24.1263 21.7277 
311 1 13.961 5.10911 13.2196 
87 1 4.90107 21.7917 2.64187 
17 1 8.83106 0.521399 19.16 
58 1 4.20559 17.1293 2.85483 
43 1 8.08024 11.8048 12.1923 
201 1 22.4672 18.0178 21.5689 
174 1 15.6818 10.8166 18.0293 
264 1 6.64693 4.93806 21.4162 
53 1 14.902 11.6333 13.6054 
336 1 5.59727 2.63049 3.66745 
129 1 14.4116 2.55373 3.70033 
401 1 7.80917 21.3407 16.6378 
330 1 20.033 4.31243 21.8231 
481 1 4.58277 16.178 8.16777 
333 1 1.96417 17.5408 14.8477 
501 1 22.0769 6.7924 23.6437 
25 1 3.95494 22.8737 22.8666 
323 1 21.1392 6.06666 23.8641 
347 1 5.94993 7.97144 4.56958 
210 1 1.75433 8.42004 16.4363 
496 1 14.2599 22.528 23.446 
14 1 10.8836 7.18499 24.4499 
288 1 13.4116 14.7842 19.6333 
120 1 8.9936 19.489 3.69439 
124 1 13.1632 0.950014 16.683 
265 1 13.7323 20.8932 17.3406 
317 1 23.58 16.2951 1.31525 
49 1 3.37237 22.9798 20.3649 
359 1 24.2527 8.64533 14.4016 
176 1 22.3417 6.30998 10.8094 
245 1 12.0029 22.9753 8.97809 
231 1 12.0744 20.7288 11.892 
204 1 10.5638 19.2736 10.1655 
301 1 20.9448 4.17725 12.767 
